variables="x","y","u","v"
zone t=zone1, i=384, j=384, f=point
0.0 385.0 0.0 0.0
1.0 385.0 -0.0 0.0
2.0 385.0 -0.0 0.0
3.0 385.0 -0.0 0.0
4.0 385.0 -0.0 0.0
5.0 385.0 -0.0 0.0
6.0 385.0 -0.0 0.0
7.0 385.0 -0.0 0.0
8.0 385.0 -0.0 0.0
9.0 385.0 -0.0 0.0
10.0 385.0 -0.0 0.0
11.0 385.0 -0.0 0.0
12.0 385.0 -0.0 0.0
13.0 385.0 -0.0 0.0
14.0 385.0 -0.0 0.0
15.0 385.0 -0.0 0.0
16.0 385.0 -0.0 0.0
17.0 385.0 -0.0 0.0
18.0 385.0 -0.0 0.0
19.0 385.0 -0.0 0.0
20.0 385.0 -0.0 0.0
21.0 385.0 -0.0 0.0
22.0 385.0 -0.0 0.0
23.0 385.0 -0.0 0.0
24.0 385.0 -0.0 0.0
25.0 385.0 -0.0 0.0
26.0 385.0 -0.0 0.0
27.0 385.0 -0.0 0.0
28.0 385.0 -0.0 0.0
29.0 385.0 -0.0 0.0
30.0 385.0 -0.0 0.0
31.0 385.0 -0.0 0.0
32.0 385.0 -0.0 0.0
33.0 385.0 -0.0 0.0
34.0 385.0 -0.0 0.0
35.0 385.0 -0.0 0.0
36.0 385.0 -0.0 0.0
37.0 385.0 -0.0 0.0
38.0 385.0 -0.0 0.0
39.0 385.0 -0.0 0.0
40.0 385.0 -0.0 0.0
41.0 385.0 -0.0 0.0
42.0 385.0 -0.0 0.0
43.0 385.0 -0.0 0.0
44.0 385.0 -0.0 0.0
45.0 385.0 -0.0 0.0
46.0 385.0 -0.0 0.0
47.0 385.0 -0.0 0.0
48.0 385.0 -0.0 0.0
49.0 385.0 -0.0 0.0
50.0 385.0 -0.0 0.0
51.0 385.0 -0.0 0.0
52.0 385.0 -0.0 0.0
53.0 385.0 -0.0 0.0
54.0 385.0 -0.0 0.0
55.0 385.0 -0.0 0.0
56.0 385.0 -0.0 0.0
57.0 385.0 -0.0 0.0
58.0 385.0 -0.0 0.0
59.0 385.0 -0.0 0.0
60.0 385.0 -0.0 0.0
61.0 385.0 -0.0 0.0
62.0 385.0 -0.0 0.0
63.0 385.0 -0.0 0.0
64.0 385.0 -0.0 0.0
65.0 385.0 -0.0 0.0
66.0 385.0 -0.0 0.0
67.0 385.0 -0.0 0.0
68.0 385.0 -0.0 0.0
69.0 385.0 -0.0 0.0
70.0 385.0 -0.0 0.0
71.0 385.0 -0.0 0.0
72.0 385.0 0.0 0.0
73.0 385.0 -0.0 0.0
74.0 385.0 -0.0 0.0
75.0 385.0 -0.0 0.0
76.0 385.0 -0.0 0.0
77.0 385.0 -0.0 0.0
78.0 385.0 0.0 0.0
79.0 385.0 0.0 0.0
80.0 385.0 0.0 0.0
81.0 385.0 0.0 0.0
82.0 385.0 0.0 0.0
83.0 385.0 0.0 0.0
84.0 385.0 0.0 0.0
85.0 385.0 0.0 0.0
86.0 385.0 0.0 0.0
87.0 385.0 0.0 0.0
88.0 385.0 0.0 0.0
89.0 385.0 0.0 0.0
90.0 385.0 0.0 0.0
91.0 385.0 0.0 0.0
92.0 385.0 0.0 0.0
93.0 385.0 0.0 0.0
94.0 385.0 0.0 0.0
95.0 385.0 0.0 0.0
96.0 385.0 0.0 0.0
97.0 385.0 0.0 0.0
98.0 385.0 0.0 0.0
99.0 385.0 -0.0 0.0
100.0 385.0 -0.0 0.0
101.0 385.0 -0.0 0.0
102.0 385.0 0.0 0.0
103.0 385.0 0.0 0.0
104.0 385.0 0.0 0.0
105.0 385.0 0.0 0.0
106.0 385.0 -0.0 0.0
107.0 385.0 -0.0 0.0
108.0 385.0 -0.0 0.0
109.0 385.0 -0.0 0.0
110.0 385.0 -0.0 0.0
111.0 385.0 0.0 0.0
112.0 385.0 0.0 0.0
113.0 385.0 0.0 0.0
114.0 385.0 0.0 0.0
115.0 385.0 -0.0 0.0
116.0 385.0 -0.0 0.0
117.0 385.0 -0.0 0.0
118.0 385.0 0.0 0.0
119.0 385.0 0.0 0.0
120.0 385.0 0.0 0.0
121.0 385.0 0.0 0.0
122.0 385.0 -0.0 0.0
123.0 385.0 -0.0 0.0
124.0 385.0 -0.0 0.0
125.0 385.0 -0.0 0.0
126.0 385.0 -0.0 0.0
127.0 385.0 -0.0 0.0
128.0 385.0 -0.0 0.0
129.0 385.0 -0.0 0.0
130.0 385.0 -0.0 0.0
131.0 385.0 -0.0 0.0
132.0 385.0 -0.0 0.0
133.0 385.0 -0.0 0.0
134.0 385.0 -0.0 0.0
135.0 385.0 -0.0 0.0
136.0 385.0 0.0 0.0
137.0 385.0 -0.0 0.0
138.0 385.0 -0.0 0.0
139.0 385.0 -0.0 0.0
140.0 385.0 -0.0 0.0
141.0 385.0 -0.0 0.0
142.0 385.0 -0.0 0.0
143.0 385.0 0.0 0.0
144.0 385.0 0.0 0.0
145.0 385.0 0.0 0.0
146.0 385.0 -0.0 0.0
147.0 385.0 -0.0 0.0
148.0 385.0 -0.0 0.0
149.0 385.0 -0.0 0.0
150.0 385.0 -0.0 0.0
151.0 385.0 0.0 0.0
152.0 385.0 0.0 0.0
153.0 385.0 -0.0 0.0
154.0 385.0 -0.0 0.0
155.0 385.0 -0.0 0.0
156.0 385.0 -0.0 0.0
157.0 385.0 -0.0 0.0
158.0 385.0 -0.0 0.0
159.0 385.0 -0.0 0.0
160.0 385.0 -0.0 0.0
161.0 385.0 -0.0 0.0
162.0 385.0 -0.0 0.0
163.0 385.0 -0.0 0.0
164.0 385.0 -0.0 0.0
165.0 385.0 -0.0 0.0
166.0 385.0 -0.0 0.0
167.0 385.0 -0.0 0.0
168.0 385.0 -0.0 0.0
169.0 385.0 -0.0 0.0
170.0 385.0 -0.0 0.0
171.0 385.0 -0.0 0.0
172.0 385.0 -0.0 0.0
173.0 385.0 -0.0 0.0
174.0 385.0 -0.0 0.0
175.0 385.0 -0.0 0.0
176.0 385.0 0.0 0.0
177.0 385.0 -0.0 0.0
178.0 385.0 -0.0 0.0
179.0 385.0 -0.0 0.0
180.0 385.0 -0.0 0.0
181.0 385.0 -0.0 0.0
182.0 385.0 -0.0 0.0
183.0 385.0 0.0 0.0
184.0 385.0 0.0 0.0
185.0 385.0 0.0 0.0
186.0 385.0 -0.0 0.0
187.0 385.0 -0.0 0.0
188.0 385.0 -0.0 0.0
189.0 385.0 -0.0 0.0
190.0 385.0 -0.0 0.0
191.0 385.0 -0.0 0.0
192.0 385.0 0.0 0.0
193.0 385.0 -0.0 0.0
194.0 385.0 -0.0 0.0
195.0 385.0 -0.0 0.0
196.0 385.0 -0.0 0.0
197.0 385.0 -0.0 0.0
198.0 385.0 -0.0 0.0
199.0 385.0 -0.0 0.0
200.0 385.0 0.0 0.0
201.0 385.0 -0.0 0.0
202.0 385.0 -0.0 0.0
203.0 385.0 -0.0 0.0
204.0 385.0 -0.0 0.0
205.0 385.0 -0.0 0.0
206.0 385.0 -0.0 0.0
207.0 385.0 -0.0 0.0
208.0 385.0 -0.0 0.0
209.0 385.0 -0.0 0.0
210.0 385.0 -0.0 0.0
211.0 385.0 -0.0 0.0
212.0 385.0 -0.0 0.0
213.0 385.0 -0.0 0.0
214.0 385.0 -0.0 0.0
215.0 385.0 -0.0 0.0
216.0 385.0 0.0 0.0
217.0 385.0 -0.0 0.0
218.0 385.0 -0.0 0.0
219.0 385.0 -0.0 0.0
220.0 385.0 -0.0 0.0
221.0 385.0 -0.0 0.0
222.0 385.0 -0.0 0.0
223.0 385.0 -0.0 0.0
224.0 385.0 -0.0 0.0
225.0 385.0 -0.0 0.0
226.0 385.0 -0.0 0.0
227.0 385.0 -0.0 0.0
228.0 385.0 -0.0 0.0
229.0 385.0 -0.0 0.0
230.0 385.0 -0.0 0.0
231.0 385.0 -0.0 0.0
232.0 385.0 -0.0 0.0
233.0 385.0 -0.0 0.0
234.0 385.0 -0.0 0.0
235.0 385.0 -0.0 0.0
236.0 385.0 -0.0 0.0
237.0 385.0 -0.0 0.0
238.0 385.0 -0.0 0.0
239.0 385.0 -0.0 0.0
240.0 385.0 0.0 0.0
241.0 385.0 -0.0 0.0
242.0 385.0 -0.0 0.0
243.0 385.0 -0.0 0.0
244.0 385.0 -0.0 0.0
245.0 385.0 -0.0 0.0
246.0 385.0 -0.0 0.0
247.0 385.0 -0.0 0.0
248.0 385.0 0.0 0.0
249.0 385.0 -0.0 0.0
250.0 385.0 -0.0 0.0
251.0 385.0 -0.0 0.0
252.0 385.0 -0.0 0.0
253.0 385.0 -0.0 0.0
254.0 385.0 -0.0 0.0
255.0 385.0 0.0 0.0
256.0 385.0 0.0 0.0
257.0 385.0 0.0 0.0
258.0 385.0 0.0 0.0
259.0 385.0 0.0 0.0
260.0 385.0 -0.0 0.0
261.0 385.0 0.0 0.0
262.0 385.0 0.0 0.0
263.0 385.0 0.0 0.0
264.0 385.0 0.0 0.0
265.0 385.0 0.0 0.0
266.0 385.0 0.0 0.0
267.0 385.0 0.0 0.0
268.0 385.0 0.0 0.0
269.0 385.0 0.0 0.0
270.0 385.0 0.0 0.0
271.0 385.0 0.0 0.0
272.0 385.0 0.0 0.0
273.0 385.0 0.0 0.0
274.0 385.0 0.0 0.0
275.0 385.0 0.0 0.0
276.0 385.0 0.0 0.0
277.0 385.0 0.0 0.0
278.0 385.0 0.0 0.0
279.0 385.0 0.0 0.0
280.0 385.0 0.0 0.0
281.0 385.0 0.0 0.0
282.0 385.0 0.0 0.0
283.0 385.0 0.0 0.0
284.0 385.0 0.0 0.0
285.0 385.0 0.0 0.0
286.0 385.0 0.0 0.0
287.0 385.0 0.0 0.0
288.0 385.0 0.0 0.0
289.0 385.0 0.0 0.0
290.0 385.0 0.0 0.0
291.0 385.0 0.0 0.0
292.0 385.0 0.0 0.0
293.0 385.0 0.0 0.0
294.0 385.0 0.0 0.0
295.0 385.0 0.0 0.0
296.0 385.0 0.0 0.0
297.0 385.0 0.0 0.0
298.0 385.0 0.0 0.0
299.0 385.0 0.0 0.0
300.0 385.0 0.0 0.0
301.0 385.0 0.0 0.0
302.0 385.0 0.0 0.0
303.0 385.0 0.0 0.0
304.0 385.0 0.0 0.0
305.0 385.0 0.0 0.0
306.0 385.0 0.0 0.0
307.0 385.0 0.0 0.0
308.0 385.0 0.0 0.0
309.0 385.0 0.0 0.0
310.0 385.0 0.0 0.0
311.0 385.0 0.0 0.0
312.0 385.0 0.0 0.0
313.0 385.0 0.0 0.0
314.0 385.0 0.0 0.0
315.0 385.0 0.0 0.0
316.0 385.0 0.0 0.0
317.0 385.0 0.0 0.0
318.0 385.0 0.0 0.0
319.0 385.0 0.0 0.0
320.0 385.0 0.0 0.0
321.0 385.0 0.0 0.0
322.0 385.0 0.0 0.0
323.0 385.0 0.0 0.0
324.0 385.0 0.0 0.0
325.0 385.0 0.0 0.0
326.0 385.0 0.0 0.0
327.0 385.0 0.0 0.0
328.0 385.0 0.0 0.0
329.0 385.0 0.0 0.0
330.0 385.0 0.0 0.0
331.0 385.0 -0.0 0.0
332.0 385.0 -0.0 0.0
333.0 385.0 -0.0 0.0
334.0 385.0 0.0 0.0
335.0 385.0 0.0 0.0
336.0 385.0 0.0 0.0
337.0 385.0 0.0 0.0
338.0 385.0 0.0 0.0
339.0 385.0 0.0 0.0
340.0 385.0 0.0 0.0
341.0 385.0 0.0 0.0
342.0 385.0 0.0 0.0
343.0 385.0 -0.0 0.0
344.0 385.0 -0.0 0.0
345.0 385.0 -0.0 0.0
346.0 385.0 -0.0 0.0
347.0 385.0 -0.0 0.0
348.0 385.0 -0.0 0.0
349.0 385.0 -0.0 0.0
350.0 385.0 -0.0 0.0
351.0 385.0 -0.0 0.0
352.0 385.0 -0.0 0.0
353.0 385.0 -0.0 0.0
354.0 385.0 -0.0 0.0
355.0 385.0 -0.0 0.0
356.0 385.0 -0.0 0.0
357.0 385.0 -0.0 0.0
358.0 385.0 -0.0 0.0
359.0 385.0 0.0 0.0
360.0 385.0 0.0 0.0
361.0 385.0 0.0 0.0
362.0 385.0 0.0 0.0
363.0 385.0 0.0 0.0
364.0 385.0 0.0 0.0
365.0 385.0 0.0 0.0
366.0 385.0 0.0 0.0
367.0 385.0 0.0 0.0
368.0 385.0 0.0 0.0
369.0 385.0 0.0 0.0
370.0 385.0 0.0 0.0
371.0 385.0 0.0 0.0
372.0 385.0 0.0 0.0
373.0 385.0 0.0 0.0
374.0 385.0 0.0 0.0
375.0 385.0 0.0 0.0
376.0 385.0 0.0 0.0
377.0 385.0 0.0 0.0
378.0 385.0 0.0 0.0
379.0 385.0 0.0 0.0
380.0 385.0 0.0 0.0
381.0 385.0 0.0 0.0
382.0 385.0 0.0 0.0
383.0 385.0 0.0 0.0
0.0 384.0 -0.0 0.0
1.0 384.0 -0.0 0.0
2.0 384.0 -0.0 0.0
3.0 384.0 -0.0 0.0
4.0 384.0 -0.0 0.0
5.0 384.0 -0.0 0.0
6.0 384.0 -0.0 0.0
7.0 384.0 -0.0 0.0
8.0 384.0 -0.0 0.0
9.0 384.0 -0.0 0.0
10.0 384.0 -0.0 0.0
11.0 384.0 -0.0 0.0
12.0 384.0 -0.0 0.0
13.0 384.0 -0.0 0.0
14.0 384.0 -0.0 0.0
15.0 384.0 -0.0 0.0
16.0 384.0 -0.0 0.0
17.0 384.0 -0.0 0.0
18.0 384.0 -0.0 0.0
19.0 384.0 -0.0 0.0
20.0 384.0 -0.0 0.0
21.0 384.0 -0.0 0.0
22.0 384.0 -0.0 0.0
23.0 384.0 -0.0 0.0
24.0 384.0 -0.0 0.0
25.0 384.0 -0.0 0.0
26.0 384.0 -0.0 0.0
27.0 384.0 -0.0 0.0
28.0 384.0 -0.0 0.0
29.0 384.0 -0.0 0.0
30.0 384.0 -0.0 0.0
31.0 384.0 -0.0 0.0
32.0 384.0 -0.0 0.0
33.0 384.0 -0.0 0.0
34.0 384.0 -0.0 0.0
35.0 384.0 -0.0 0.0
36.0 384.0 -0.0 0.0
37.0 384.0 -0.0 0.0
38.0 384.0 -0.0 0.0
39.0 384.0 -0.0 0.0
40.0 384.0 -0.0 0.0
41.0 384.0 -0.0 0.0
42.0 384.0 -0.0 0.0
43.0 384.0 -0.0 0.0
44.0 384.0 -0.0 0.0
45.0 384.0 -0.0 0.0
46.0 384.0 -0.0 0.0
47.0 384.0 -0.0 0.0
48.0 384.0 -0.0 0.0
49.0 384.0 -0.0 0.0
50.0 384.0 -0.0 0.0
51.0 384.0 -0.0 0.0
52.0 384.0 -0.0 0.0
53.0 384.0 -0.0 0.0
54.0 384.0 -0.0 0.0
55.0 384.0 -0.0 0.0
56.0 384.0 -0.0 0.0
57.0 384.0 -0.0 0.0
58.0 384.0 -0.0 0.0
59.0 384.0 -0.0 0.0
60.0 384.0 -0.0 0.0
61.0 384.0 -0.0 0.0
62.0 384.0 -0.0 0.0
63.0 384.0 -0.0 0.0
64.0 384.0 -0.0 0.0
65.0 384.0 -0.0 0.0
66.0 384.0 -0.0 0.0
67.0 384.0 -0.0 0.0
68.0 384.0 -0.0 0.0
69.0 384.0 -0.0 0.0
70.0 384.0 -0.0 0.0
71.0 384.0 -0.0 0.0
72.0 384.0 -0.0 0.0
73.0 384.0 -0.0 0.0
74.0 384.0 -0.0 0.0
75.0 384.0 -0.0 0.0
76.0 384.0 -0.0 0.0
77.0 384.0 -0.0 0.0
78.0 384.0 0.0 0.0
79.0 384.0 0.0 0.0
80.0 384.0 0.0 0.0
81.0 384.0 0.0 0.0
82.0 384.0 0.0 0.0
83.0 384.0 0.0 0.0
84.0 384.0 0.0 0.0
85.0 384.0 0.0 0.0
86.0 384.0 0.0 0.0
87.0 384.0 0.0 0.0
88.0 384.0 0.0 0.0
89.0 384.0 0.0 0.0
90.0 384.0 0.0 0.0
91.0 384.0 0.0 0.0
92.0 384.0 -0.0 0.0
93.0 384.0 0.0 0.0
94.0 384.0 0.0 0.0
95.0 384.0 0.0 0.0
96.0 384.0 0.0 0.0
97.0 384.0 0.0 0.0
98.0 384.0 -0.0 0.0
99.0 384.0 -0.0 0.0
100.0 384.0 -0.0 0.0
101.0 384.0 -0.0 0.0
102.0 384.0 -0.0 0.0
103.0 384.0 -0.0 0.0
104.0 384.0 0.0 0.0
105.0 384.0 -0.0 0.0
106.0 384.0 -0.0 0.0
107.0 384.0 -0.0 0.0
108.0 384.0 -0.0 0.0
109.0 384.0 -0.0 0.0
110.0 384.0 -0.0 0.0
111.0 384.0 0.0 0.0
112.0 384.0 0.0 0.0
113.0 384.0 0.0 0.0
114.0 384.0 -0.0 0.0
115.0 384.0 -0.0 0.0
116.0 384.0 -0.0 0.0
117.0 384.0 -0.0 0.0
118.0 384.0 -0.0 0.0
119.0 384.0 0.0 0.0
120.0 384.0 0.0 0.0
121.0 384.0 -0.0 0.0
122.0 384.0 -0.0 0.0
123.0 384.0 -0.0 0.0
124.0 384.0 -0.0 0.0
125.0 384.0 -0.0 0.0
126.0 384.0 -0.0 0.0
127.0 384.0 -0.0 0.0
128.0 384.0 -0.0 0.0
129.0 384.0 -0.0 0.0
130.0 384.0 -0.0 0.0
131.0 384.0 -0.0 0.0
132.0 384.0 -0.0 0.0
133.0 384.0 -0.0 0.0
134.0 384.0 -0.0 0.0
135.0 384.0 -0.0 0.0
136.0 384.0 -0.0 0.0
137.0 384.0 -0.0 0.0
138.0 384.0 -0.0 0.0
139.0 384.0 -0.0 0.0
140.0 384.0 -0.0 0.0
141.0 384.0 -0.0 0.0
142.0 384.0 -0.0 0.0
143.0 384.0 -0.0 0.0
144.0 384.0 -0.0 0.0
145.0 384.0 -0.0 0.0
146.0 384.0 -0.0 0.0
147.0 384.0 -0.0 0.0
148.0 384.0 -0.0 0.0
149.0 384.0 -0.0 0.0
150.0 384.0 -0.0 0.0
151.0 384.0 -0.0 0.0
152.0 384.0 -0.0 0.0
153.0 384.0 -0.0 0.0
154.0 384.0 -0.0 0.0
155.0 384.0 -0.0 0.0
156.0 384.0 -0.0 0.0
157.0 384.0 -0.0 0.0
158.0 384.0 -0.0 0.0
159.0 384.0 -0.0 0.0
160.0 384.0 -0.0 0.0
161.0 384.0 -0.0 0.0
162.0 384.0 -0.0 0.0
163.0 384.0 -0.0 0.0
164.0 384.0 -0.0 0.0
165.0 384.0 -0.0 0.0
166.0 384.0 -0.0 0.0
167.0 384.0 -0.0 0.0
168.0 384.0 -0.0 0.0
169.0 384.0 -0.0 0.0
170.0 384.0 -0.0 0.0
171.0 384.0 -0.0 0.0
172.0 384.0 -0.0 0.0
173.0 384.0 -0.0 0.0
174.0 384.0 -0.0 0.0
175.0 384.0 -0.0 0.0
176.0 384.0 -0.0 0.0
177.0 384.0 -0.0 0.0
178.0 384.0 -0.0 0.0
179.0 384.0 -0.0 0.0
180.0 384.0 -0.0 0.0
181.0 384.0 -0.0 0.0
182.0 384.0 -0.0 0.0
183.0 384.0 -0.0 0.0
184.0 384.0 -0.0 0.0
185.0 384.0 -0.0 0.0
186.0 384.0 -0.0 0.0
187.0 384.0 -0.0 0.0
188.0 384.0 -0.0 0.0
189.0 384.0 -0.0 0.0
190.0 384.0 -0.0 0.0
191.0 384.0 -0.0 0.0
192.0 384.0 -0.0 0.0
193.0 384.0 -0.0 0.0
194.0 384.0 -0.0 0.0
195.0 384.0 -0.0 0.0
196.0 384.0 -0.0 0.0
197.0 384.0 -0.0 0.0
198.0 384.0 -0.0 0.0
199.0 384.0 -0.0 0.0
200.0 384.0 -0.0 0.0
201.0 384.0 -0.0 0.0
202.0 384.0 -0.0 0.0
203.0 384.0 -0.0 0.0
204.0 384.0 -0.0 0.0
205.0 384.0 -0.0 0.0
206.0 384.0 -0.0 0.0
207.0 384.0 -0.0 0.0
208.0 384.0 -0.0 0.0
209.0 384.0 -0.0 0.0
210.0 384.0 -0.0 0.0
211.0 384.0 -0.0 0.0
212.0 384.0 -0.0 0.0
213.0 384.0 -0.0 0.0
214.0 384.0 -0.0 0.0
215.0 384.0 -0.0 0.0
216.0 384.0 -0.0 0.0
217.0 384.0 -0.0 0.0
218.0 384.0 -0.0 0.0
219.0 384.0 -0.0 0.0
220.0 384.0 -0.0 0.0
221.0 384.0 -0.0 0.0
222.0 384.0 -0.0 0.0
223.0 384.0 -0.0 0.0
224.0 384.0 -0.0 0.0
225.0 384.0 -0.0 0.0
226.0 384.0 -0.0 0.0
227.0 384.0 -0.0 0.0
228.0 384.0 -0.0 0.0
229.0 384.0 -0.0 0.0
230.0 384.0 -0.0 0.0
231.0 384.0 -0.0 0.0
232.0 384.0 -0.0 0.0
233.0 384.0 -0.0 0.0
234.0 384.0 -0.0 0.0
235.0 384.0 -0.0 0.0
236.0 384.0 -0.0 0.0
237.0 384.0 -0.0 0.0
238.0 384.0 -0.0 0.0
239.0 384.0 -0.0 0.0
240.0 384.0 -0.0 0.0
241.0 384.0 -0.0 0.0
242.0 384.0 -0.0 0.0
243.0 384.0 -0.0 0.0
244.0 384.0 -0.0 0.0
245.0 384.0 -0.0 0.0
246.0 384.0 -0.0 0.0
247.0 384.0 -0.0 0.0
248.0 384.0 -0.0 0.0
249.0 384.0 -0.0 0.0
250.0 384.0 -0.0 0.0
251.0 384.0 -0.0 0.0
252.0 384.0 -0.0 0.0
253.0 384.0 -0.0 0.0
254.0 384.0 -0.0 0.0
255.0 384.0 -0.0 0.0
256.0 384.0 -0.0 0.0
257.0 384.0 -0.0 0.0
258.0 384.0 -0.0 0.0
259.0 384.0 -0.0 0.0
260.0 384.0 -0.0 0.0
261.0 384.0 -0.0 0.0
262.0 384.0 0.0 0.0
263.0 384.0 0.0 0.0
264.0 384.0 0.0 0.0
265.0 384.0 0.0 0.0
266.0 384.0 0.0 0.0
267.0 384.0 0.0 0.0
268.0 384.0 0.0 0.0
269.0 384.0 0.0 0.0
270.0 384.0 0.0 0.0
271.0 384.0 0.0 0.0
272.0 384.0 0.0 0.0
273.0 384.0 0.0 0.0
274.0 384.0 0.0 0.0
275.0 384.0 0.0 0.0
276.0 384.0 0.0 0.0
277.0 384.0 0.0 0.0
278.0 384.0 0.0 0.0
279.0 384.0 0.0 0.0
280.0 384.0 0.0 0.0
281.0 384.0 0.0 0.0
282.0 384.0 0.0 0.0
283.0 384.0 0.0 0.0
284.0 384.0 -0.0 0.0
285.0 384.0 0.0 0.0
286.0 384.0 0.0 0.0
287.0 384.0 0.0 0.0
288.0 384.0 0.0 0.0
289.0 384.0 0.0 0.0
290.0 384.0 0.0 0.0
291.0 384.0 0.0 0.0
292.0 384.0 0.0 0.0
293.0 384.0 0.0 0.0
294.0 384.0 0.0 0.0
295.0 384.0 0.0 0.0
296.0 384.0 0.0 0.0
297.0 384.0 0.0 0.0
298.0 384.0 0.0 0.0
299.0 384.0 0.0 0.0
300.0 384.0 0.0 0.0
301.0 384.0 0.0 0.0
302.0 384.0 0.0 0.0
303.0 384.0 0.0 0.0
304.0 384.0 0.0 0.0
305.0 384.0 0.0 0.0
306.0 384.0 0.0 0.0
307.0 384.0 0.0 0.0
308.0 384.0 0.0 0.0
309.0 384.0 0.0 0.0
310.0 384.0 0.0 0.0
311.0 384.0 0.0 0.0
312.0 384.0 0.0 0.0
313.0 384.0 0.0 0.0
314.0 384.0 0.0 0.0
315.0 384.0 0.0 0.0
316.0 384.0 0.0 0.0
317.0 384.0 0.0 0.0
318.0 384.0 0.0 0.0
319.0 384.0 0.0 0.0
320.0 384.0 0.0 0.0
321.0 384.0 0.0 0.0
322.0 384.0 0.0 0.0
323.0 384.0 0.0 0.0
324.0 384.0 0.0 0.0
325.0 384.0 0.0 0.0
326.0 384.0 0.0 0.0
327.0 384.0 -0.0 0.0
328.0 384.0 -0.0 0.0
329.0 384.0 -0.0 0.0
330.0 384.0 -0.0 0.0
331.0 384.0 -0.0 0.0
332.0 384.0 -0.0 0.0
333.0 384.0 -0.0 0.0
334.0 384.0 -0.0 0.0
335.0 384.0 -0.0 0.0
336.0 384.0 -0.0 0.0
337.0 384.0 -0.0 0.0
338.0 384.0 -0.0 0.0
339.0 384.0 -0.0 0.0
340.0 384.0 -0.0 0.0
341.0 384.0 -0.0 0.0
342.0 384.0 -0.0 0.0
343.0 384.0 -0.0 0.0
344.0 384.0 -0.0 0.0
345.0 384.0 -0.0 0.0
346.0 384.0 -0.0 0.0
347.0 384.0 -0.0 0.0
348.0 384.0 -0.0 0.0
349.0 384.0 -0.0 0.0
350.0 384.0 -0.0 0.0
351.0 384.0 -0.0 0.0
352.0 384.0 -0.0 0.0
353.0 384.0 -0.0 0.0
354.0 384.0 -0.0 0.0
355.0 384.0 -0.0 0.0
356.0 384.0 -0.0 0.0
357.0 384.0 -0.0 0.0
358.0 384.0 -0.0 0.0
359.0 384.0 -0.0 0.0
360.0 384.0 -0.0 0.0
361.0 384.0 -0.0 0.0
362.0 384.0 -0.0 0.0
363.0 384.0 -0.0 0.0
364.0 384.0 -0.0 0.0
365.0 384.0 0.0 0.0
366.0 384.0 0.0 0.0
367.0 384.0 0.0 0.0
368.0 384.0 0.0 0.0
369.0 384.0 0.0 0.0
370.0 384.0 0.0 0.0
371.0 384.0 0.0 0.0
372.0 384.0 0.0 0.0
373.0 384.0 0.0 0.0
374.0 384.0 0.0 0.0
375.0 384.0 0.0 0.0
376.0 384.0 0.0 0.0
377.0 384.0 0.0 0.0
378.0 384.0 0.0 0.0
379.0 384.0 0.0 0.0
380.0 384.0 0.0 0.0
381.0 384.0 0.0 0.0
382.0 384.0 0.0 0.0
383.0 384.0 0.0 0.0
0.0 383.0 -0.0 0.0
1.0 383.0 -0.0 0.0
2.0 383.0 -0.0 0.0
3.0 383.0 -0.0 0.0
4.0 383.0 -0.0 0.0
5.0 383.0 -0.0 0.0
6.0 383.0 -0.0 0.0
7.0 383.0 -0.0 0.0
8.0 383.0 -0.0 0.0
9.0 383.0 -0.0 0.0
10.0 383.0 -0.0 0.0
11.0 383.0 -0.0 0.0
12.0 383.0 -0.0 0.0
13.0 383.0 -0.0 0.0
14.0 383.0 -0.0 0.0
15.0 383.0 -0.0 0.0
16.0 383.0 -0.0 0.0
17.0 383.0 -0.0 0.0
18.0 383.0 -0.0 0.0
19.0 383.0 -0.0 0.0
20.0 383.0 -0.0 0.0
21.0 383.0 -0.0 0.0
22.0 383.0 -0.0 0.0
23.0 383.0 -0.0 0.0
24.0 383.0 -0.0 0.0
25.0 383.0 -0.0 0.0
26.0 383.0 -0.0 0.0
27.0 383.0 -0.0 0.0
28.0 383.0 -0.0 0.0
29.0 383.0 -0.0 0.0
30.0 383.0 -0.0 0.0
31.0 383.0 -0.0 0.0
32.0 383.0 -0.0 0.0
33.0 383.0 -0.0 0.0
34.0 383.0 -0.0 0.0
35.0 383.0 -0.0 0.0
36.0 383.0 -0.0 0.0
37.0 383.0 -0.0 0.0
38.0 383.0 -0.0 0.0
39.0 383.0 -0.0 0.0
40.0 383.0 -0.0 0.0
41.0 383.0 -0.0 0.0
42.0 383.0 -0.0 0.0
43.0 383.0 -0.0 0.0
44.0 383.0 -0.0 0.0
45.0 383.0 -0.0 0.0
46.0 383.0 -0.0 0.0
47.0 383.0 -0.0 0.0
48.0 383.0 -0.0 0.0
49.0 383.0 -0.0 0.0
50.0 383.0 -0.0 0.0
51.0 383.0 -0.0 0.0
52.0 383.0 -0.0 0.0
53.0 383.0 -0.0 0.0
54.0 383.0 -0.0 0.0
55.0 383.0 -0.0 0.0
56.0 383.0 -0.0 0.0
57.0 383.0 -0.0 0.0
58.0 383.0 -0.0 0.0
59.0 383.0 -0.0 0.0
60.0 383.0 -0.0 0.0
61.0 383.0 -0.0 0.0
62.0 383.0 -0.0 0.0
63.0 383.0 -0.0 0.0
64.0 383.0 -0.0 0.0
65.0 383.0 -0.0 0.0
66.0 383.0 -0.0 0.0
67.0 383.0 -0.0 0.0
68.0 383.0 -0.0 0.0
69.0 383.0 -0.0 0.0
70.0 383.0 -0.0 0.0
71.0 383.0 -0.0 0.0
72.0 383.0 -0.0 0.0
73.0 383.0 -0.0 0.0
74.0 383.0 -0.0 0.0
75.0 383.0 -0.0 0.0
76.0 383.0 -0.0 0.0
77.0 383.0 -0.0 0.0
78.0 383.0 -0.0 0.0
79.0 383.0 0.0 0.0
80.0 383.0 0.0 0.0
81.0 383.0 0.0 0.0
82.0 383.0 0.0 0.0
83.0 383.0 0.0 0.0
84.0 383.0 0.0 0.0
85.0 383.0 0.0 0.0
86.0 383.0 0.0 0.0
87.0 383.0 0.0 0.0
88.0 383.0 0.0 0.0
89.0 383.0 0.0 0.0
90.0 383.0 0.0 0.0
91.0 383.0 0.0 0.0
92.0 383.0 -0.0 0.0
93.0 383.0 -0.0 0.0
94.0 383.0 0.0 0.0
95.0 383.0 0.0 0.0
96.0 383.0 0.0 0.0
97.0 383.0 -0.0 0.0
98.0 383.0 -0.0 0.0
99.0 383.0 -0.0 0.0
100.0 383.0 -0.0 0.0
101.0 383.0 -0.0 0.0
102.0 383.0 -0.0 0.0
103.0 383.0 -0.0 0.0
104.0 383.0 -0.0 0.0
105.0 383.0 -0.0 0.0
106.0 383.0 -0.0 0.0
107.0 383.0 -0.0 0.0
108.0 383.0 -0.0 0.0
109.0 383.0 -0.0 0.0
110.0 383.0 -0.0 0.0
111.0 383.0 -0.0 0.0
112.0 383.0 0.0 0.0
113.0 383.0 -0.0 0.0
114.0 383.0 -0.0 0.0
115.0 383.0 -0.0 0.0
116.0 383.0 -0.0 0.0
117.0 383.0 -0.0 0.0
118.0 383.0 -0.0 0.0
119.0 383.0 -0.0 0.0
120.0 383.0 -0.0 0.0
121.0 383.0 -0.0 0.0
122.0 383.0 -0.0 0.0
123.0 383.0 -0.0 0.0
124.0 383.0 -0.0 0.0
125.0 383.0 -0.0 0.0
126.0 383.0 -0.0 0.0
127.0 383.0 -0.0 0.0
128.0 383.0 -0.0 0.0
129.0 383.0 -0.0 0.0
130.0 383.0 -0.0 0.0
131.0 383.0 -0.0 0.0
132.0 383.0 -0.0 0.0
133.0 383.0 -0.0 0.0
134.0 383.0 -0.0 0.0
135.0 383.0 -0.0 0.0
136.0 383.0 -0.0 0.0
137.0 383.0 -0.0 0.0
138.0 383.0 -0.0 0.0
139.0 383.0 -0.0 0.0
140.0 383.0 -0.0 0.0
141.0 383.0 -0.0 0.0
142.0 383.0 -0.0 0.0
143.0 383.0 -0.0 0.0
144.0 383.0 -0.0 0.0
145.0 383.0 -0.0 0.0
146.0 383.0 -0.0 0.0
147.0 383.0 -0.0 0.0
148.0 383.0 -0.0 0.0
149.0 383.0 -0.0 0.0
150.0 383.0 -0.0 0.0
151.0 383.0 -0.0 0.0
152.0 383.0 -0.0 0.0
153.0 383.0 -0.0 0.0
154.0 383.0 -0.0 0.0
155.0 383.0 -0.0 0.0
156.0 383.0 -0.0 0.0
157.0 383.0 -0.0 0.0
158.0 383.0 -0.0 0.0
159.0 383.0 -0.0 0.0
160.0 383.0 -0.0 0.0
161.0 383.0 -0.0 0.0
162.0 383.0 -0.0 0.0
163.0 383.0 -0.0 0.0
164.0 383.0 -0.0 0.0
165.0 383.0 -0.0 0.0
166.0 383.0 -0.0 0.0
167.0 383.0 -0.0 0.0
168.0 383.0 -0.0 0.0
169.0 383.0 -0.0 0.0
170.0 383.0 -0.0 0.0
171.0 383.0 -0.0 0.0
172.0 383.0 -0.0 0.0
173.0 383.0 -0.0 0.0
174.0 383.0 -0.0 0.0
175.0 383.0 -0.0 0.0
176.0 383.0 -0.0 0.0
177.0 383.0 -0.0 0.0
178.0 383.0 -0.0 0.0
179.0 383.0 -0.0 0.0
180.0 383.0 -0.0 0.0
181.0 383.0 -0.0 0.0
182.0 383.0 -0.0 0.0
183.0 383.0 -0.0 0.0
184.0 383.0 -0.0 0.0
185.0 383.0 -0.0 0.0
186.0 383.0 -0.0 0.0
187.0 383.0 -0.0 0.0
188.0 383.0 -0.0 0.0
189.0 383.0 -0.0 0.0
190.0 383.0 -0.0 0.0
191.0 383.0 -0.0 0.0
192.0 383.0 -0.0 0.0
193.0 383.0 -0.0 0.0
194.0 383.0 -0.0 0.0
195.0 383.0 -0.0 0.0
196.0 383.0 -0.0 0.0
197.0 383.0 -0.0 0.0
198.0 383.0 -0.0 0.0
199.0 383.0 -0.0 0.0
200.0 383.0 -0.0 0.0
201.0 383.0 -0.0 0.0
202.0 383.0 -0.0 0.0
203.0 383.0 -0.0 0.0
204.0 383.0 -0.0 0.0
205.0 383.0 -0.0 0.0
206.0 383.0 -0.0 0.0
207.0 383.0 -0.0 0.0
208.0 383.0 -0.0 0.0
209.0 383.0 -0.0 0.0
210.0 383.0 -0.0 0.0
211.0 383.0 -0.0 0.0
212.0 383.0 -0.0 0.0
213.0 383.0 -0.0 0.0
214.0 383.0 -0.0 0.0
215.0 383.0 -0.0 0.0
216.0 383.0 -0.0 0.0
217.0 383.0 -0.0 0.0
218.0 383.0 -0.0 0.0
219.0 383.0 -0.0 0.0
220.0 383.0 -0.0 0.0
221.0 383.0 -0.0 0.0
222.0 383.0 -0.0 0.0
223.0 383.0 -0.0 0.0
224.0 383.0 -0.0 0.0
225.0 383.0 -0.0 0.0
226.0 383.0 -0.0 0.0
227.0 383.0 -0.0 0.0
228.0 383.0 -0.0 0.0
229.0 383.0 -0.0 0.0
230.0 383.0 -0.0 0.0
231.0 383.0 -0.0 0.0
232.0 383.0 -0.0 0.0
233.0 383.0 -0.0 0.0
234.0 383.0 -0.0 0.0
235.0 383.0 -0.0 0.0
236.0 383.0 -0.0 0.0
237.0 383.0 -0.0 0.0
238.0 383.0 -0.0 0.0
239.0 383.0 -0.0 0.0
240.0 383.0 -0.0 0.0
241.0 383.0 -0.0 0.0
242.0 383.0 -0.0 0.0
243.0 383.0 -0.0 0.0
244.0 383.0 -0.0 0.0
245.0 383.0 -0.0 0.0
246.0 383.0 -0.0 0.0
247.0 383.0 -0.0 0.0
248.0 383.0 -0.0 0.0
249.0 383.0 -0.0 0.0
250.0 383.0 -0.0 0.0
251.0 383.0 -0.0 0.0
252.0 383.0 -0.0 0.0
253.0 383.0 -0.0 0.0
254.0 383.0 -0.0 0.0
255.0 383.0 -0.0 0.0
256.0 383.0 -0.0 0.0
257.0 383.0 -0.0 0.0
258.0 383.0 -0.0 0.0
259.0 383.0 -0.0 0.0
260.0 383.0 -0.0 0.0
261.0 383.0 -0.0 0.0
262.0 383.0 -0.0 0.0
263.0 383.0 -0.0 0.0
264.0 383.0 -0.0 0.0
265.0 383.0 -0.0 0.0
266.0 383.0 -0.0 0.0
267.0 383.0 -0.0 0.0
268.0 383.0 -0.0 0.0
269.0 383.0 -0.0 0.0
270.0 383.0 0.0 0.0
271.0 383.0 0.0 0.0
272.0 383.0 0.0 0.0
273.0 383.0 0.0 0.0
274.0 383.0 0.0 0.0
275.0 383.0 0.0 0.0
276.0 383.0 0.0 0.0
277.0 383.0 0.0 0.0
278.0 383.0 0.0 0.0
279.0 383.0 0.0 0.0
280.0 383.0 0.0 0.0
281.0 383.0 0.0 0.0
282.0 383.0 0.0 0.0
283.0 383.0 -0.0 0.0
284.0 383.0 -0.0 0.0
285.0 383.0 -0.0 0.0
286.0 383.0 0.0 0.0
287.0 383.0 0.0 0.0
288.0 383.0 0.0 0.0
289.0 383.0 0.0 0.0
290.0 383.0 0.0 0.0
291.0 383.0 0.0 0.0
292.0 383.0 0.0 0.0
293.0 383.0 0.0 0.0
294.0 383.0 0.0 0.0
295.0 383.0 0.0 0.0
296.0 383.0 0.0 0.0
297.0 383.0 0.0 0.0
298.0 383.0 0.0 0.0
299.0 383.0 0.0 0.0
300.0 383.0 0.0 0.0
301.0 383.0 0.0 0.0
302.0 383.0 0.0 0.0
303.0 383.0 0.0 0.0
304.0 383.0 0.0 0.0
305.0 383.0 0.0 0.0
306.0 383.0 0.0 0.0
307.0 383.0 0.0 0.0
308.0 383.0 0.0 0.0
309.0 383.0 0.0 0.0
310.0 383.0 0.0 0.0
311.0 383.0 0.0 0.0
312.0 383.0 0.0 0.0
313.0 383.0 0.0 0.0
314.0 383.0 0.0 0.0
315.0 383.0 0.0 0.0
316.0 383.0 0.0 0.0
317.0 383.0 0.0 0.0
318.0 383.0 0.0 0.0
319.0 383.0 0.0 0.0
320.0 383.0 0.0 0.0
321.0 383.0 -0.0 0.0
322.0 383.0 -0.0 0.0
323.0 383.0 -0.0 0.0
324.0 383.0 -0.0 0.0
325.0 383.0 -0.0 0.0
326.0 383.0 -0.0 0.0
327.0 383.0 -0.0 0.0
328.0 383.0 -0.0 0.0
329.0 383.0 -0.0 0.0
330.0 383.0 -0.0 0.0
331.0 383.0 -0.0 0.0
332.0 383.0 -0.0 0.0
333.0 383.0 -0.0 0.0
334.0 383.0 -0.0 0.0
335.0 383.0 -0.0 0.0
336.0 383.0 -0.0 0.0
337.0 383.0 -0.0 0.0
338.0 383.0 -0.0 0.0
339.0 383.0 -0.0 0.0
340.0 383.0 -0.0 0.0
341.0 383.0 -0.0 0.0
342.0 383.0 -0.0 0.0
343.0 383.0 -0.0 0.0
344.0 383.0 -0.0 0.0
345.0 383.0 -0.0 0.0
346.0 383.0 -0.0 0.0
347.0 383.0 -0.0 0.0
348.0 383.0 -0.0 0.0
349.0 383.0 -0.0 0.0
350.0 383.0 -0.0 0.0
351.0 383.0 -0.0 0.0
352.0 383.0 -0.0 0.0
353.0 383.0 -0.0 0.0
354.0 383.0 -0.0 0.0
355.0 383.0 -0.0 0.0
356.0 383.0 -0.0 0.0
357.0 383.0 -0.0 0.0
358.0 383.0 -0.0 0.0
359.0 383.0 -0.0 0.0
360.0 383.0 -0.0 0.0
361.0 383.0 -0.0 0.0
362.0 383.0 -0.0 0.0
363.0 383.0 -0.0 0.0
364.0 383.0 -0.0 0.0
365.0 383.0 -0.0 0.0
366.0 383.0 -0.0 0.0
367.0 383.0 -0.0 0.0
368.0 383.0 0.0 0.0
369.0 383.0 0.0 0.0
370.0 383.0 0.0 0.0
371.0 383.0 0.0 0.0
372.0 383.0 0.0 0.0
373.0 383.0 0.0 0.0
374.0 383.0 0.0 0.0
375.0 383.0 0.0 0.0
376.0 383.0 0.0 0.0
377.0 383.0 0.0 0.0
378.0 383.0 0.0 0.0
379.0 383.0 0.0 0.0
380.0 383.0 0.0 0.0
381.0 383.0 0.0 0.0
382.0 383.0 0.0 0.0
383.0 383.0 0.0 0.0
0.0 382.0 -0.0 0.0
1.0 382.0 -0.0 0.0
2.0 382.0 -0.0 0.0
3.0 382.0 -0.0 0.0
4.0 382.0 -0.0 0.0
5.0 382.0 -0.0 0.0
6.0 382.0 -0.0 0.0
7.0 382.0 -0.0 0.0
8.0 382.0 -0.0 0.0
9.0 382.0 -0.0 0.0
10.0 382.0 -0.0 0.0
11.0 382.0 -0.0 0.0
12.0 382.0 -0.0 0.0
13.0 382.0 -0.0 0.0
14.0 382.0 -0.0 0.0
15.0 382.0 -0.0 0.0
16.0 382.0 -0.0 0.0
17.0 382.0 -0.0 0.0
18.0 382.0 -0.0 0.0
19.0 382.0 -0.0 0.0
20.0 382.0 -0.0 0.0
21.0 382.0 -0.0 0.0
22.0 382.0 -0.0 0.0
23.0 382.0 -0.0 0.0
24.0 382.0 -0.0 0.0
25.0 382.0 -0.0 0.0
26.0 382.0 -0.0 0.0
27.0 382.0 -0.0 0.0
28.0 382.0 -0.0 0.0
29.0 382.0 -0.0 0.0
30.0 382.0 -0.0 0.0
31.0 382.0 -0.0 0.0
32.0 382.0 -0.0 0.0
33.0 382.0 -0.0 0.0
34.0 382.0 -0.0 0.0
35.0 382.0 -0.0 0.0
36.0 382.0 -0.0 0.0
37.0 382.0 -0.0 0.0
38.0 382.0 -0.0 0.0
39.0 382.0 -0.0 0.0
40.0 382.0 -0.0 0.0
41.0 382.0 -0.0 0.0
42.0 382.0 -0.0 0.0
43.0 382.0 -0.0 0.0
44.0 382.0 -0.0 0.0
45.0 382.0 -0.0 0.0
46.0 382.0 -0.0 0.0
47.0 382.0 -0.0 0.0
48.0 382.0 -0.0 0.0
49.0 382.0 -0.0 0.0
50.0 382.0 -0.0 0.0
51.0 382.0 -0.0 0.0
52.0 382.0 -0.0 0.0
53.0 382.0 -0.0 0.0
54.0 382.0 -0.0 0.0
55.0 382.0 -0.0 0.0
56.0 382.0 -0.0 0.0
57.0 382.0 -0.0 0.0
58.0 382.0 -0.0 0.0
59.0 382.0 -0.0 0.0
60.0 382.0 -0.0 0.0
61.0 382.0 -0.0 0.0
62.0 382.0 -0.0 0.0
63.0 382.0 -0.0 0.0
64.0 382.0 -0.0 0.0
65.0 382.0 -0.0 0.0
66.0 382.0 -0.0 0.0
67.0 382.0 -0.0 0.0
68.0 382.0 -0.0 0.0
69.0 382.0 -0.0 0.0
70.0 382.0 -0.0 0.0
71.0 382.0 -0.0 0.0
72.0 382.0 -0.0 0.0
73.0 382.0 -0.0 0.0
74.0 382.0 -0.0 0.0
75.0 382.0 -0.0 0.0
76.0 382.0 -0.0 0.0
77.0 382.0 -0.0 0.0
78.0 382.0 -0.0 0.0
79.0 382.0 0.0 0.0
80.0 382.0 0.0 0.0
81.0 382.0 0.0 0.0
82.0 382.0 0.0 0.0
83.0 382.0 0.0 0.0
84.0 382.0 0.0 0.0
85.0 382.0 0.0 0.0
86.0 382.0 0.0 0.0
87.0 382.0 0.0 0.0
88.0 382.0 0.0 0.0
89.0 382.0 0.0 0.0
90.0 382.0 0.0 0.0
91.0 382.0 0.0 0.0
92.0 382.0 -0.0 0.0
93.0 382.0 -0.0 0.0
94.0 382.0 -0.0 0.0
95.0 382.0 -0.0 0.0
96.0 382.0 -0.0 0.0
97.0 382.0 -0.0 0.0
98.0 382.0 -0.0 0.0
99.0 382.0 -0.0 0.0
100.0 382.0 -0.0 0.0
101.0 382.0 -0.0 0.0
102.0 382.0 -0.0 0.0
103.0 382.0 -0.0 0.0
104.0 382.0 -0.0 0.0
105.0 382.0 -0.0 0.0
106.0 382.0 -0.0 0.0
107.0 382.0 -0.0 0.0
108.0 382.0 -0.0 0.0
109.0 382.0 -0.0 0.0
110.0 382.0 -0.0 0.0
111.0 382.0 -0.0 0.0
112.0 382.0 -0.0 0.0
113.0 382.0 -0.0 0.0
114.0 382.0 -0.0 0.0
115.0 382.0 -0.0 0.0
116.0 382.0 -0.0 0.0
117.0 382.0 -0.0 0.0
118.0 382.0 -0.0 0.0
119.0 382.0 -0.0 0.0
120.0 382.0 -0.0 0.0
121.0 382.0 -0.0 0.0
122.0 382.0 -0.0 0.0
123.0 382.0 -0.0 0.0
124.0 382.0 -0.0 0.0
125.0 382.0 -0.0 0.0
126.0 382.0 -0.0 0.0
127.0 382.0 -0.0 0.0
128.0 382.0 -0.0 0.0
129.0 382.0 -0.0 0.0
130.0 382.0 -0.0 0.0
131.0 382.0 -0.0 0.0
132.0 382.0 -0.0 0.0
133.0 382.0 -0.0 0.0
134.0 382.0 -0.0 0.0
135.0 382.0 -0.0 0.0
136.0 382.0 -0.0 0.0
137.0 382.0 -0.0 0.0
138.0 382.0 -0.0 0.0
139.0 382.0 -0.0 0.0
140.0 382.0 -0.0 0.0
141.0 382.0 -0.0 0.0
142.0 382.0 -0.0 0.0
143.0 382.0 -0.0 0.0
144.0 382.0 -0.0 0.0
145.0 382.0 -0.0 0.0
146.0 382.0 -0.0 0.0
147.0 382.0 -0.0 0.0
148.0 382.0 -0.0 0.0
149.0 382.0 -0.0 0.0
150.0 382.0 -0.0 0.0
151.0 382.0 -0.0 0.0
152.0 382.0 -0.0 0.0
153.0 382.0 -0.0 0.0
154.0 382.0 -0.0 0.0
155.0 382.0 -0.0 0.0
156.0 382.0 -0.0 0.0
157.0 382.0 -0.0 0.0
158.0 382.0 -0.0 0.0
159.0 382.0 -0.0 0.0
160.0 382.0 -0.0 0.0
161.0 382.0 -0.0 0.0
162.0 382.0 -0.0 0.0
163.0 382.0 -0.0 0.0
164.0 382.0 -0.0 0.0
165.0 382.0 -0.0 0.0
166.0 382.0 -0.0 0.0
167.0 382.0 -0.0 0.0
168.0 382.0 -0.0 0.0
169.0 382.0 -0.0 0.0
170.0 382.0 -0.0 0.0
171.0 382.0 -0.0 0.0
172.0 382.0 -0.0 0.0
173.0 382.0 -0.0 0.0
174.0 382.0 -0.0 0.0
175.0 382.0 -0.0 0.0
176.0 382.0 -0.0 0.0
177.0 382.0 -0.0 0.0
178.0 382.0 -0.0 0.0
179.0 382.0 -0.0 0.0
180.0 382.0 -0.0 0.0
181.0 382.0 -0.0 0.0
182.0 382.0 -0.0 0.0
183.0 382.0 -0.0 0.0
184.0 382.0 -0.0 0.0
185.0 382.0 -0.0 0.0
186.0 382.0 -0.0 0.0
187.0 382.0 -0.0 0.0
188.0 382.0 -0.0 0.0
189.0 382.0 -0.0 0.0
190.0 382.0 -0.0 0.0
191.0 382.0 -0.0 0.0
192.0 382.0 -0.0 0.0
193.0 382.0 -0.0 0.0
194.0 382.0 -0.0 0.0
195.0 382.0 -0.0 0.0
196.0 382.0 -0.0 0.0
197.0 382.0 -0.0 0.0
198.0 382.0 -0.0 0.0
199.0 382.0 -0.0 0.0
200.0 382.0 -0.0 0.0
201.0 382.0 -0.0 0.0
202.0 382.0 -0.0 0.0
203.0 382.0 -0.0 0.0
204.0 382.0 -0.0 0.0
205.0 382.0 -0.0 0.0
206.0 382.0 -0.0 0.0
207.0 382.0 -0.0 0.0
208.0 382.0 -0.0 0.0
209.0 382.0 -0.0 0.0
210.0 382.0 -0.0 0.0
211.0 382.0 -0.0 0.0
212.0 382.0 -0.0 0.0
213.0 382.0 -0.0 0.0
214.0 382.0 -0.0 0.0
215.0 382.0 -0.0 0.0
216.0 382.0 -0.0 0.0
217.0 382.0 -0.0 0.0
218.0 382.0 -0.0 0.0
219.0 382.0 -0.0 0.0
220.0 382.0 -0.0 0.0
221.0 382.0 -0.0 0.0
222.0 382.0 -0.0 0.0
223.0 382.0 -0.0 0.0
224.0 382.0 -0.0 0.0
225.0 382.0 -0.0 0.0
226.0 382.0 -0.0 0.0
227.0 382.0 -0.0 0.0
228.0 382.0 -0.0 0.0
229.0 382.0 -0.0 0.0
230.0 382.0 -0.0 0.0
231.0 382.0 -0.0 0.0
232.0 382.0 -0.0 0.0
233.0 382.0 -0.0 0.0
234.0 382.0 -0.0 0.0
235.0 382.0 -0.0 0.0
236.0 382.0 -0.0 0.0
237.0 382.0 -0.0 0.0
238.0 382.0 -0.0 0.0
239.0 382.0 -0.0 0.0
240.0 382.0 -0.0 0.0
241.0 382.0 -0.0 0.0
242.0 382.0 -0.0 0.0
243.0 382.0 -0.0 0.0
244.0 382.0 -0.0 0.0
245.0 382.0 -0.0 0.0
246.0 382.0 -0.0 0.0
247.0 382.0 -0.0 0.0
248.0 382.0 -0.0 0.0
249.0 382.0 -0.0 0.0
250.0 382.0 -0.0 0.0
251.0 382.0 -0.0 0.0
252.0 382.0 -0.0 0.0
253.0 382.0 -0.0 0.0
254.0 382.0 -0.0 0.0
255.0 382.0 -0.0 0.0
256.0 382.0 -0.0 0.0
257.0 382.0 -0.0 0.0
258.0 382.0 -0.0 0.0
259.0 382.0 -0.0 0.0
260.0 382.0 -0.0 0.0
261.0 382.0 -0.0 0.0
262.0 382.0 -0.0 0.0
263.0 382.0 -0.0 0.0
264.0 382.0 -0.0 0.0
265.0 382.0 -0.0 0.0
266.0 382.0 -0.0 0.0
267.0 382.0 -0.0 0.0
268.0 382.0 -0.0 0.0
269.0 382.0 -0.0 0.0
270.0 382.0 -0.0 0.0
271.0 382.0 0.0 0.0
272.0 382.0 0.0 0.0
273.0 382.0 0.0 0.0
274.0 382.0 0.0 0.0
275.0 382.0 0.0 0.0
276.0 382.0 -0.0 0.0
277.0 382.0 0.0 0.0
278.0 382.0 0.0 0.0
279.0 382.0 0.0 0.0
280.0 382.0 0.0 0.0
281.0 382.0 -0.0 0.0
282.0 382.0 -0.0 0.0
283.0 382.0 -0.0 0.0
284.0 382.0 -0.0 0.0
285.0 382.0 -0.0 0.0
286.0 382.0 -0.0 0.0
287.0 382.0 -0.0 0.0
288.0 382.0 -0.0 0.0
289.0 382.0 -0.0 0.0
290.0 382.0 -0.0 0.0
291.0 382.0 -0.0 0.0
292.0 382.0 -0.0 0.0
293.0 382.0 -0.0 0.0
294.0 382.0 -0.0 0.0
295.0 382.0 -0.0 0.0
296.0 382.0 -0.0 0.0
297.0 382.0 -0.0 0.0
298.0 382.0 -0.0 0.0
299.0 382.0 -0.0 0.0
300.0 382.0 -0.0 0.0
301.0 382.0 -0.0 0.0
302.0 382.0 -0.0 0.0
303.0 382.0 0.0 0.0
304.0 382.0 0.0 0.0
305.0 382.0 0.0 0.0
306.0 382.0 0.0 0.0
307.0 382.0 0.0 0.0
308.0 382.0 0.0 0.0
309.0 382.0 0.0 0.0
310.0 382.0 0.0 0.0
311.0 382.0 0.0 0.0